6
Lattice="20.9358409558 0.0 0.0 0.0 23.6020975211 0.0 0.0 0.0 21.540252" Properties=species:S:1:pos:R:3:forces:R:3:stress:R:1:charge:R:1 Water=T dimer=T energy=-28.146883545394118 pbc="F F F"
O      10.97299796      13.20819724      10.77012602       0.00001836      -0.00052877      -0.00000131       0.00000001      -0.62264591 
H      10.15396916      13.72468413      10.77012599       0.00048789       0.00022642       0.00000027       0.00000015       0.29225362 
H      10.71058556      12.26637177      10.77012599      -0.00082042      -0.00029664       0.00000190       0.00000000       0.30717777 
O      10.36094774      10.40957677      10.77013122      -0.00027257      -0.00031055      -0.00065002       0.00000002      -0.58850700 
H      10.81589771      10.05874227       9.99098716       0.00010397       0.00060042       0.00033540      -0.00000003       0.30585949 
H      10.81589479      10.05874478      11.54925963       0.00048277       0.00030913       0.00031375       0.00000001       0.30586203 
