9
Lattice="23.446963 0.0 0.0 0.0 22.2171695 0.0 0.0 0.0 23.9430776" Properties=species:S:1:pos:R:3:forces:R:3:charge:R:1 199=T Energy=-69.9938657427 kJ/mol=T energy=-42.42168377319359 stress="1.1735825167732633e-07 8.291517605827883e-08 -1.0613981874493797e-07 8.291517605827883e-08 3.039749631736279e-08 -3.867263400187941e-08 -1.0613981874493797e-07 -3.867263400187941e-08 -4.0205738175421535e-08" pbc="F F F"
O      12.64319085      12.10144828      12.06210519      -0.00024679      -0.00005088       0.00012365      -0.62025783 
H      11.84932905      12.04819628      12.63477131      -0.00015522      -0.00002804      -0.00008894       0.32449373 
H      13.41434687      11.98409931      12.63709366      -0.00013612      -0.00025262       0.00038358       0.29961449 
O      10.31989203      11.07932068      13.24023372      -0.00009692       0.00018714      -0.00025100      -0.62710793 
H      10.30532452      10.45957452      13.98533745       0.00098672       0.00001131       0.00005809       0.29940904 
H      10.41067812      10.53971008      12.42408769      -0.00035783       0.00028555      -0.00003853       0.32220637 
O      11.31217302       9.95283904      10.90239814       0.00004681       0.00006199       0.00017948      -0.62298787 
H      11.99952429      10.62457671      11.10367275      -0.00018578      -0.00005286       0.00001381       0.32313606 
H      10.87580064      10.24081610      10.08611999       0.00014513      -0.00016159      -0.00038014       0.30149394 
