12
Lattice="23.7532323 0.0 0.0 0.0 23.7239336 0.0 0.0 0.0 22.0006788" Properties=species:S:1:pos:R:3:forces:R:3:charge:R:1 10002=T Energy=-116.590418616 kJ/mol=T energy=-56.772903279211626 stress="8.086404014696124e-08 -4.406891237608615e-10 -4.522305667999159e-09 -4.406891237608615e-10 8.065659070707923e-08 3.590122878997501e-09 -4.522305667999159e-09 3.590122878997501e-09 1.1701607884868635e-07" pbc="F F F"
O      10.39505393      13.12425961      10.52806550       0.00006187       0.00030757      -0.00029440      -0.62854379 
H      11.36558010      13.30092199      10.57942313       0.00041432       0.00021433       0.00025265       0.32655254 
H       9.98742375      13.61966392      11.25531070      -0.00002933      -0.00067638      -0.00037604       0.30199124 
O      10.56523515      10.38238564      10.81315852      -0.00036497       0.00005125       0.00022198      -0.62854379 
H      10.38956077      11.35223397      10.74757671      -0.00016057       0.00041879      -0.00028331       0.32655254 
H      10.24538056       9.98937116       9.98629334       0.00057912      -0.00003287       0.00051313       0.30199124 
O      13.30087353      10.58557352      11.13426583       0.00000350      -0.00035948      -0.00023636      -0.62854379 
H      12.34258542      10.39919408      10.98355139      -0.00046782      -0.00017185       0.00018177       0.32655254 
H      13.50995712      10.24781585      12.01895627       0.00013476       0.00059266      -0.00047994       0.30199124 
O      13.13165939      13.32667963      10.84132138       0.00029960       0.00000067       0.00030876      -0.62854379 
H      13.29509571      12.36654835      11.00625999       0.00021408      -0.00046128      -0.00015110       0.32655254 
H      13.65006056      13.56204747      10.05625095      -0.00068457       0.00011658       0.00034288       0.30199124 
