15
Lattice="23.22790483 0.0 0.0 0.0 24.94564772 0.0 0.0 0.0 24.95509648" Properties=species:S:1:pos:R:3:initial_charges:R:1:forces:R:3:charge:R:1 10002=T Energy=-152.1090020006 kJ/mol=T energy=-71.00554729053113 stress="3.334233308300045e-09 -2.1116354530900795e-08 4.3949284033851596e-08 -2.1116354530900795e-08 3.16392761496837e-09 -1.0527345859752912e-09 4.3949284033851596e-08 -1.0527345859752912e-09 -5.451574740042548e-08" pbc="F F F"
O      10.41831415      10.87012540      14.21137169      -0.62997183       0.00011756      -0.00006592       0.00007141      -0.62997183 
H      10.82787685      10.40145990      14.95509648       0.30175926       0.00022407      -0.00009303      -0.00001060       0.30175926 
H      10.50235354      11.83393565      14.41277678       0.32844261       0.00015961      -0.00006206       0.00009684       0.32844261 
O      11.57433760      10.41006041      11.74452835      -0.63113452      -0.00029654       0.00007601      -0.00004582      -0.63113452 
H      10.86679663      10.00000000      11.22362954       0.29980660      -0.00073213       0.00051647      -0.00024655       0.29980660 
H      11.20535724      10.55426778      12.64983065       0.32856910      -0.00014303      -0.00006590      -0.00012326       0.32856910 
O      12.33842640      14.67663498      12.82076628      -0.62964492      -0.00043871       0.00009049      -0.00026524      -0.62964492 
H      12.46377886      14.00970001      12.10296947       0.32882075      -0.00015602      -0.00000984      -0.00004636       0.32882075 
H      13.22790483      14.94564772      13.09820325       0.30184624      -0.00047026       0.00051890      -0.00028324       0.30184624 
O      10.79583267      13.54133042      14.81230418      -0.63018275       0.00020864      -0.00008285       0.00009217      -0.63018275 
H      11.38669631      13.94156516      14.12849629       0.32830504      -0.00005017      -0.00001462      -0.00003484       0.32830504 
H      10.00000000      14.09471668      14.84127733       0.30151639       0.00011270      -0.00012341       0.00032733       0.30151639 
O      12.80351466      12.74378231      10.89884383      -0.62793018       0.00040115      -0.00040157       0.00059431      -0.62793018 
H      12.46533959      12.87628921      10.00000000       0.29925681       0.00092578      -0.00029339      -0.00022977       0.29925681 
H      12.44313793      11.87992793      11.21207723       0.33054139       0.00013736       0.00001072       0.00010362       0.33054139 
